 &FCI NORB=  6,NELEC=  6,MS2= 0,
  ORBSYM=1,1,1,1,1,1,
  ISYM=1,
  IUHF=1,
 /
  0.1169127190118083E+01   1   1   1   1
 -0.1347300770298057E-14   2   1   1   1
  0.5040118117451908E+00   2   1   2   1
  0.1180278964872724E+01   2   2   1   1
 -0.1082467449009528E-14   2   2   2   1
  0.1224407770582493E+01   2   2   2   2
 -0.7245766049505095E-01   3   1   1   1
  0.1734723475976807E-16   3   1   2   1
 -0.7566277871635853E-01   3   1   2   2
  0.8852644238959708E-02   3   1   3   1
  0.5252439659220892E-15   3   2   1   1
 -0.5188888215986304E-01   3   2   2   1
  0.4850991570243268E-15   3   2   2   2
 -0.8673617379884035E-18   3   2   3   1
  0.7859128811008960E-02   3   2   3   2
  0.3345992837820336E+00   3   3   1   1
 -0.5342948306008566E-15   3   3   2   1
  0.3343693107812054E+00   3   3   2   2
 -0.2154471979636217E-02   3   3   3   1
  0.3434752482434078E-15   3   3   3   2
  0.2565542810292813E+00   3   3   3   3
 -0.4147468768264304E-15   4   1   1   1
 -0.1515516162662563E-01   4   1   2   1
 -0.4186578926416995E-15   4   1   2   2
  0.3675445364725860E-16   4   1   3   1
  0.2132447015686436E-02   4   1   3   2
 -0.1629581276234131E-15   4   1   3   3
  0.5953637329923708E-03   4   1   4   1
 -0.2658344814091426E-01   4   2   1   1
 -0.1231653667943533E-15   4   2   2   1
 -0.2781196655563909E-01   4   2   2   2
  0.2817273041424860E-02   4   2   3   1
  0.2526191061891225E-16   4   2   3   2
 -0.1704490254620388E-02   4   2   3   3
  0.1257674520083185E-15   4   2   4   1
  0.9737795814703937E-03   4   2   4   2
 -0.6010799903600691E-15   4   3   1   1
  0.2249062542530339E-01   4   3   2   1
 -0.5059700488446728E-15   4   3   2   2
 -0.2623769257414921E-16   4   3   3   1
  0.1069536658013315E-02   4   3   3   2
 -0.9864613466359362E-15   4   3   3   3
  0.1785762563423013E-03   4   3   4   1
 -0.4128641872824801E-15   4   3   4   2
  0.2355621733097307E-01   4   3   4   3
  0.1797939073067599E+00   4   4   1   1
 -0.5342948306008566E-15   4   4   2   1
  0.1805238023509755E+00   4   4   2   2
 -0.9925416531478791E-04   4   4   3   1
  0.1283695372222837E-15   4   4   3   2
  0.1695301073195379E+00   4   4   3   3
 -0.3191891195797325E-15   4   4   4   1
  0.5126378781293572E-04   4   4   4   2
  0.2220446049250313E-14   4   4   4   3
  0.1543776125078944E+00   4   4   4   4
  0.4155960781905605E-01   5   1   1   1
  0.3469446951953614E-16   5   1   2   1
  0.4178418124362617E-01   5   1   2   2
 -0.4789853402167988E-02   5   1   3   1
 -0.1409462824231156E-17   5   1   3   2
  0.1566617628281231E-02   5   1   3   3
 -0.3642919299551295E-16   5   1   4   1
 -0.1520893737222159E-02   5   1   4   2
  0.6288372600415926E-17   5   1   4   3
  0.1788867701444062E-03   5   1   4   4
  0.2692022349174901E-02   5   1   5   1
 -0.3480711431360912E-15   5   2   1   1
  0.2440741957584844E-01   5   2   2   1
 -0.3360755684161942E-15   5   2   2   2
 -0.9540979117872439E-17   5   2   3   1
 -0.3723921423911713E-02   5   2   3   2
 -0.3544544893057180E-15   5   2   3   3
 -0.1018725427984651E-02   5   2   4   1
 -0.1387778780781446E-16   5   2   4   2
 -0.4990855798622455E-03   5   2   4   3
  0.1517883041479706E-16   5   2   4   4
  0.4336808689942018E-18   5   2   5   1
  0.1799426757736272E-02   5   2   5   2
 -0.8431406782903712E-01   5   3   1   1
 -0.1318389841742373E-15   5   3   2   1
 -0.8386517604394839E-01   5   3   2   2
  0.1156927130862942E-02   5   3   3   1
 -0.8500145032286355E-16   5   3   3   2
 -0.4169259042522935E-01   5   3   3   3
  0.1734723475976807E-16   5   3   4   1
  0.9233819962674028E-03   5   3   4   2
 -0.3469446951953614E-15   5   3   4   3
 -0.1032943522663310E-01   5   3   4   4
 -0.7791812653859855E-03   5   3   5   1
  0.3556183125752455E-16   5   3   5   2
  0.1753820968652137E-01   5   3   5   3
  0.4406659791332936E-16   5   4   1   1
 -0.2736396237493500E-03   5   4   2   1
  0.5229581416348050E-17   5   4   2   2
 -0.8238581258174227E-16   5   4   3   1
  0.4489895469135995E-03   5   4   3   2
 -0.3341511095600325E-15   5   4   3   3
  0.7000865174371779E-04   5   4   4   1
  0.4448481513708025E-15   5   4   4   2
  0.1330907240192092E-01   5   4   4   3
 -0.1297573160030652E-13   5   4   4   4
  0.4882806127742140E-16   5   4   5   1
 -0.5359334110206443E-04   5   4   5   2
 -0.3919390853535099E-15   5   4   5   3
  0.1887948536269567E-01   5   4   5   4
  0.1951033460177651E+00   5   5   1   1
 -0.1526556658859590E-15   5   5   2   1
  0.1946177598330993E+00   5   5   2   2
 -0.6617327835941149E-03   5   5   3   1
  0.1873501354054952E-15   5   5   3   2
  0.1684190381727260E+00   5   5   3   3
 -0.1110223024625157E-15   5   5   4   1
 -0.5619771906842236E-03   5   5   4   2
 -0.5551115123125783E-15   5   5   4   3
  0.1377551430828441E+00   5   5   4   4
  0.5204084745922283E-03   5   5   5   1
 -0.2758210326803123E-15   5   5   5   2
 -0.1331460558894638E-01   5   5   5   3
  0.8881784197001252E-15   5   5   5   4
  0.1374714062281608E+00   5   5   5   5
  0.1267369341560103E-15   6   1   1   1
  0.2605954827421877E-01   6   1   2   1
  0.2615637741121279E-16   6   1   2   2
 -0.1507041019754851E-16   6   1   3   1
 -0.5288026344550257E-02   6   1   3   2
  0.5078470738557883E-16   6   1   3   3
 -0.1316916488678112E-02   6   1   4   1
 -0.2818925648462312E-16   6   1   4   2
 -0.2110092254287044E-03   6   1   4   3
  0.1595078236160674E-14   6   1   4   4
  0.3035766082959412E-17   6   1   5   1
  0.2368001083133201E-02   6   1   5   2
 -0.2211416678032582E-15   6   1   5   3
  0.9539742210435288E-05   6   1   5   4
  0.3508071654348410E-15   6   1   5   5
  0.5303706264067193E-02   6   1   6   1
  0.3571984585572634E-01   6   2   1   1
  0.1327063459122257E-15   6   2   2   1
  0.4021074237679527E-01   6   2   2   2
 -0.6306967023412453E-02   6   2   3   1
 -0.4929392939841126E-16   6   2   3   2
  0.8292945700286400E-04   6   2   3   3
 -0.1387778780781446E-15   6   2   4   1
 -0.1894344888491610E-02   6   2   4   2
  0.1288032180912779E-15   6   2   4   3
  0.8268648183060254E-04   6   2   4   4
  0.3058291853217902E-02   6   2   5   1
  0.3801145054098398E-16   6   2   5   2
  0.6466289361844416E-04   6   2   5   3
 -0.2402592014227878E-15   6   2   5   4
 -0.1178546219412267E-03   6   2   5   5
  0.3374037160774890E-15   6   2   6   1
  0.7072108028166043E-02   6   2   6   2
 -0.5459843087894396E-15   6   3   1   1
  0.1232639623676691E-01   6   3   2   1
 -0.5273559366969494E-15   6   3   2   2
 -0.6526897078362737E-16   6   3   3   1
  0.2876626975472325E-02   6   3   3   2
 -0.9417922171295334E-15   6   3   3   3
  0.7088827840262320E-03   6   3   4   1
  0.5134781488891349E-15   6   3   4   2
  0.2304471878902490E-01   6   3   4   3
 -0.4996003610813204E-15   6   3   4   4
  0.5757113535898029E-16   6   3   5   1
 -0.1413116094049111E-02   6   3   5   2
 -0.3354521521670151E-15   6   3   5   3
  0.6513197780121917E-02   6   3   5   4
  0.5780965983692710E-15   6   3   5   5
 -0.1180215271935058E-02   6   3   6   1
 -0.6860831347488272E-15   6   3   6   2
  0.2732297791758401E-01   6   3   6   3
  0.5665363232458260E-01   6   4   1   1
 -0.1386044057305469E-14   6   4   2   1
  0.5700590431909918E-01   6   4   2   2
  0.3999842096251544E-03   6   4   3   1
  0.7728193085476676E-15   6   4   3   2
  0.4795990482781073E-01   6   4   3   3
  0.3119032809806299E-14   6   4   4   1
  0.7483175220407423E-04   6   4   4   2
  0.1401656568589260E-14   6   4   4   3
  0.2218734584899451E-01   6   4   4   4
 -0.1010593628723712E-03   6   4   5   1
 -0.1024354212564305E-14   6   4   5   2
 -0.1219481253984857E-01   6   4   5   3
 -0.9436895709313831E-14   6   4   5   4
  0.1860383908233047E-01   6   4   5   5
 -0.2902192375309198E-14   6   4   6   1
 -0.3246163267295946E-03   6   4   6   2
  0.2284630817861455E-14   6   4   6   3
  0.2134989180106583E-01   6   4   6   4
 -0.1285553868388232E-14   6   5   1   1
 -0.6086372469133846E-02   6   5   2   1
 -0.8263111332326711E-15   6   5   2   2
  0.1598114002243634E-15   6   5   3   1
 -0.1229297970230195E-02   6   5   3   2
 -0.5488773498207866E-15   6   5   3   3
 -0.2750615026836595E-03   6   5   4   1
 -0.1000935445638618E-14   6   5   4   2
 -0.1200915630663552E-01   6   5   4   3
  0.5301314942585122E-14   6   5   4   4
 -0.1233822072288504E-15   6   5   5   1
  0.5879369398270745E-03   6   5   5   2
  0.3433668280261593E-15   6   5   5   3
 -0.1015924410782155E-01   6   5   5   4
  0.1295187915251184E-14   6   5   5   5
  0.4833538968470400E-03   6   5   6   1
  0.9432558900623889E-15   6   5   6   2
 -0.1058639985941753E-01   6   5   6   3
 -0.1487351908302514E-13   6   5   6   4
  0.9571523370381446E-02   6   5   6   5
  0.2593551712038294E+00   6   6   1   1
  0.1582067810090848E-14   6   6   2   1
  0.2620786810603377E+00   6   6   2   2
 -0.2382908024864084E-02   6   6   3   1
  0.6591949208711867E-16   6   6   3   2
  0.2050229094975825E+00   6   6   3   3
 -0.2567390744445674E-14   6   6   4   1
 -0.1010487815062772E-02   6   6   4   2
  0.3941291737419306E-14   6   6   4   3
  0.1598939997508375E+00   6   6   4   4
  0.1513246251740090E-02   6   6   5   1
  0.1023486850826316E-15   6   6   5   2
 -0.2552397042213181E-01   6   6   5   3
  0.4746203430272544E-14   6   6   5   4
  0.1468478601629305E+00   6   6   5   5
 -0.6879913305724017E-14   6   6   6   1
  0.1048823436310325E-02   6   6   6   2
 -0.1764560719763608E-13   6   6   6   3
  0.3660014956627666E-01   6   6   6   4
  0.2237099394619690E-13   6   6   6   5
  0.1849226580768510E+00   6   6   6   6
  0.0000000000000000E+00   0   0   0   0
  0.1169127190118083E+01   1   1   1   1
 -0.1347300770298057E-14   2   1   1   1
  0.5040118117451908E+00   2   1   2   1
  0.1180278964872724E+01   2   2   1   1
 -0.1082467449009528E-14   2   2   2   1
  0.1224407770582493E+01   2   2   2   2
 -0.7245766049505095E-01   3   1   1   1
  0.1734723475976807E-16   3   1   2   1
 -0.7566277871635853E-01   3   1   2   2
  0.8852644238959708E-02   3   1   3   1
  0.5252439659220892E-15   3   2   1   1
 -0.5188888215986304E-01   3   2   2   1
  0.4850991570243268E-15   3   2   2   2
 -0.8673617379884035E-18   3   2   3   1
  0.7859128811008960E-02   3   2   3   2
  0.3345992837820336E+00   3   3   1   1
 -0.5342948306008566E-15   3   3   2   1
  0.3343693107812054E+00   3   3   2   2
 -0.2154471979636217E-02   3   3   3   1
  0.3434752482434078E-15   3   3   3   2
  0.2565542810292813E+00   3   3   3   3
 -0.4147468768264304E-15   4   1   1   1
 -0.1515516162662563E-01   4   1   2   1
 -0.4186578926416995E-15   4   1   2   2
  0.3675445364725860E-16   4   1   3   1
  0.2132447015686436E-02   4   1   3   2
 -0.1629581276234131E-15   4   1   3   3
  0.5953637329923708E-03   4   1   4   1
 -0.2658344814091426E-01   4   2   1   1
 -0.1231653667943533E-15   4   2   2   1
 -0.2781196655563909E-01   4   2   2   2
  0.2817273041424860E-02   4   2   3   1
  0.2526191061891225E-16   4   2   3   2
 -0.1704490254620388E-02   4   2   3   3
  0.1257674520083185E-15   4   2   4   1
  0.9737795814703937E-03   4   2   4   2
 -0.6010799903600691E-15   4   3   1   1
  0.2249062542530339E-01   4   3   2   1
 -0.5059700488446728E-15   4   3   2   2
 -0.2623769257414921E-16   4   3   3   1
  0.1069536658013315E-02   4   3   3   2
 -0.9864613466359362E-15   4   3   3   3
  0.1785762563423013E-03   4   3   4   1
 -0.4128641872824801E-15   4   3   4   2
  0.2355621733097307E-01   4   3   4   3
  0.1797939073067599E+00   4   4   1   1
 -0.5342948306008566E-15   4   4   2   1
  0.1805238023509755E+00   4   4   2   2
 -0.9925416531478791E-04   4   4   3   1
  0.1283695372222837E-15   4   4   3   2
  0.1695301073195379E+00   4   4   3   3
 -0.3191891195797325E-15   4   4   4   1
  0.5126378781293572E-04   4   4   4   2
  0.2220446049250313E-14   4   4   4   3
  0.1543776125078944E+00   4   4   4   4
  0.4155960781905605E-01   5   1   1   1
  0.3469446951953614E-16   5   1   2   1
  0.4178418124362617E-01   5   1   2   2
 -0.4789853402167988E-02   5   1   3   1
 -0.1409462824231156E-17   5   1   3   2
  0.1566617628281231E-02   5   1   3   3
 -0.3642919299551295E-16   5   1   4   1
 -0.1520893737222159E-02   5   1   4   2
  0.6288372600415926E-17   5   1   4   3
  0.1788867701444062E-03   5   1   4   4
  0.2692022349174901E-02   5   1   5   1
 -0.3480711431360912E-15   5   2   1   1
  0.2440741957584844E-01   5   2   2   1
 -0.3360755684161942E-15   5   2   2   2
 -0.9540979117872439E-17   5   2   3   1
 -0.3723921423911713E-02   5   2   3   2
 -0.3544544893057180E-15   5   2   3   3
 -0.1018725427984651E-02   5   2   4   1
 -0.1387778780781446E-16   5   2   4   2
 -0.4990855798622455E-03   5   2   4   3
  0.1517883041479706E-16   5   2   4   4
  0.4336808689942018E-18   5   2   5   1
  0.1799426757736272E-02   5   2   5   2
 -0.8431406782903712E-01   5   3   1   1
 -0.1318389841742373E-15   5   3   2   1
 -0.8386517604394839E-01   5   3   2   2
  0.1156927130862942E-02   5   3   3   1
 -0.8500145032286355E-16   5   3   3   2
 -0.4169259042522935E-01   5   3   3   3
  0.1734723475976807E-16   5   3   4   1
  0.9233819962674028E-03   5   3   4   2
 -0.3469446951953614E-15   5   3   4   3
 -0.1032943522663310E-01   5   3   4   4
 -0.7791812653859855E-03   5   3   5   1
  0.3556183125752455E-16   5   3   5   2
  0.1753820968652137E-01   5   3   5   3
  0.4406659791332936E-16   5   4   1   1
 -0.2736396237493500E-03   5   4   2   1
  0.5229581416348050E-17   5   4   2   2
 -0.8238581258174227E-16   5   4   3   1
  0.4489895469135995E-03   5   4   3   2
 -0.3341511095600325E-15   5   4   3   3
  0.7000865174371779E-04   5   4   4   1
  0.4448481513708025E-15   5   4   4   2
  0.1330907240192092E-01   5   4   4   3
 -0.1297573160030652E-13   5   4   4   4
  0.4882806127742140E-16   5   4   5   1
 -0.5359334110206443E-04   5   4   5   2
 -0.3919390853535099E-15   5   4   5   3
  0.1887948536269567E-01   5   4   5   4
  0.1951033460177651E+00   5   5   1   1
 -0.1526556658859590E-15   5   5   2   1
  0.1946177598330993E+00   5   5   2   2
 -0.6617327835941149E-03   5   5   3   1
  0.1873501354054952E-15   5   5   3   2
  0.1684190381727260E+00   5   5   3   3
 -0.1110223024625157E-15   5   5   4   1
 -0.5619771906842236E-03   5   5   4   2
 -0.5551115123125783E-15   5   5   4   3
  0.1377551430828441E+00   5   5   4   4
  0.5204084745922283E-03   5   5   5   1
 -0.2758210326803123E-15   5   5   5   2
 -0.1331460558894638E-01   5   5   5   3
  0.8881784197001252E-15   5   5   5   4
  0.1374714062281608E+00   5   5   5   5
  0.1267369341560103E-15   6   1   1   1
  0.2605954827421877E-01   6   1   2   1
  0.2615637741121279E-16   6   1   2   2
 -0.1507041019754851E-16   6   1   3   1
 -0.5288026344550257E-02   6   1   3   2
  0.5078470738557883E-16   6   1   3   3
 -0.1316916488678112E-02   6   1   4   1
 -0.2818925648462312E-16   6   1   4   2
 -0.2110092254287044E-03   6   1   4   3
  0.1595078236160674E-14   6   1   4   4
  0.3035766082959412E-17   6   1   5   1
  0.2368001083133201E-02   6   1   5   2
 -0.2211416678032582E-15   6   1   5   3
  0.9539742210435288E-05   6   1   5   4
  0.3508071654348410E-15   6   1   5   5
  0.5303706264067193E-02   6   1   6   1
  0.3571984585572634E-01   6   2   1   1
  0.1327063459122257E-15   6   2   2   1
  0.4021074237679527E-01   6   2   2   2
 -0.6306967023412453E-02   6   2   3   1
 -0.4929392939841126E-16   6   2   3   2
  0.8292945700286400E-04   6   2   3   3
 -0.1387778780781446E-15   6   2   4   1
 -0.1894344888491610E-02   6   2   4   2
  0.1288032180912779E-15   6   2   4   3
  0.8268648183060254E-04   6   2   4   4
  0.3058291853217902E-02   6   2   5   1
  0.3801145054098398E-16   6   2   5   2
  0.6466289361844416E-04   6   2   5   3
 -0.2402592014227878E-15   6   2   5   4
 -0.1178546219412267E-03   6   2   5   5
  0.3374037160774890E-15   6   2   6   1
  0.7072108028166043E-02   6   2   6   2
 -0.5459843087894396E-15   6   3   1   1
  0.1232639623676691E-01   6   3   2   1
 -0.5273559366969494E-15   6   3   2   2
 -0.6526897078362737E-16   6   3   3   1
  0.2876626975472325E-02   6   3   3   2
 -0.9417922171295334E-15   6   3   3   3
  0.7088827840262320E-03   6   3   4   1
  0.5134781488891349E-15   6   3   4   2
  0.2304471878902490E-01   6   3   4   3
 -0.4996003610813204E-15   6   3   4   4
  0.5757113535898029E-16   6   3   5   1
 -0.1413116094049111E-02   6   3   5   2
 -0.3354521521670151E-15   6   3   5   3
  0.6513197780121917E-02   6   3   5   4
  0.5780965983692710E-15   6   3   5   5
 -0.1180215271935058E-02   6   3   6   1
 -0.6860831347488272E-15   6   3   6   2
  0.2732297791758401E-01   6   3   6   3
  0.5665363232458260E-01   6   4   1   1
 -0.1386044057305469E-14   6   4   2   1
  0.5700590431909918E-01   6   4   2   2
  0.3999842096251544E-03   6   4   3   1
  0.7728193085476676E-15   6   4   3   2
  0.4795990482781073E-01   6   4   3   3
  0.3119032809806299E-14   6   4   4   1
  0.7483175220407423E-04   6   4   4   2
  0.1401656568589260E-14   6   4   4   3
  0.2218734584899451E-01   6   4   4   4
 -0.1010593628723712E-03   6   4   5   1
 -0.1024354212564305E-14   6   4   5   2
 -0.1219481253984857E-01   6   4   5   3
 -0.9436895709313831E-14   6   4   5   4
  0.1860383908233047E-01   6   4   5   5
 -0.2902192375309198E-14   6   4   6   1
 -0.3246163267295946E-03   6   4   6   2
  0.2284630817861455E-14   6   4   6   3
  0.2134989180106583E-01   6   4   6   4
 -0.1285553868388232E-14   6   5   1   1
 -0.6086372469133846E-02   6   5   2   1
 -0.8263111332326711E-15   6   5   2   2
  0.1598114002243634E-15   6   5   3   1
 -0.1229297970230195E-02   6   5   3   2
 -0.5488773498207866E-15   6   5   3   3
 -0.2750615026836595E-03   6   5   4   1
 -0.1000935445638618E-14   6   5   4   2
 -0.1200915630663552E-01   6   5   4   3
  0.5301314942585122E-14   6   5   4   4
 -0.1233822072288504E-15   6   5   5   1
  0.5879369398270745E-03   6   5   5   2
  0.3433668280261593E-15   6   5   5   3
 -0.1015924410782155E-01   6   5   5   4
  0.1295187915251184E-14   6   5   5   5
  0.4833538968470400E-03   6   5   6   1
  0.9432558900623889E-15   6   5   6   2
 -0.1058639985941753E-01   6   5   6   3
 -0.1487351908302514E-13   6   5   6   4
  0.9571523370381446E-02   6   5   6   5
  0.2593551712038294E+00   6   6   1   1
  0.1582067810090848E-14   6   6   2   1
  0.2620786810603377E+00   6   6   2   2
 -0.2382908024864084E-02   6   6   3   1
  0.6591949208711867E-16   6   6   3   2
  0.2050229094975825E+00   6   6   3   3
 -0.2567390744445674E-14   6   6   4   1
 -0.1010487815062772E-02   6   6   4   2
  0.3941291737419306E-14   6   6   4   3
  0.1598939997508375E+00   6   6   4   4
  0.1513246251740090E-02   6   6   5   1
  0.1023486850826316E-15   6   6   5   2
 -0.2552397042213181E-01   6   6   5   3
  0.4746203430272544E-14   6   6   5   4
  0.1468478601629305E+00   6   6   5   5
 -0.6879913305724017E-14   6   6   6   1
  0.1048823436310325E-02   6   6   6   2
 -0.1764560719763608E-13   6   6   6   3
  0.3660014956627666E-01   6   6   6   4
  0.2237099394619690E-13   6   6   6   5
  0.1849226580768510E+00   6   6   6   6
  0.0000000000000000E+00   0   0   0   0
  0.1169127190118083E+01   1   1   1   1
 -0.1387778780781446E-14   1   1   2   1
  0.1180278964872725E+01   1   1   2   2
 -0.7245766049505099E-01   1   1   3   1
  0.5273559366969494E-15   1   1   3   2
  0.3345992837820336E+00   1   1   3   3
 -0.2775557561562891E-15   1   1   4   1
 -0.2658344814091435E-01   1   1   4   2
 -0.6661338147750939E-15   1   1   4   3
  0.1797939073067596E+00   1   1   4   4
  0.4155960781905608E-01   1   1   5   1
 -0.3400058012914542E-15   1   1   5   2
 -0.8431406782903716E-01   1   1   5   3
 -0.2220446049250313E-15   1   1   5   4
  0.1951033460177648E+00   1   1   5   5
  0.4163336342344337E-16   1   1   6   1
  0.3571984585572635E-01   1   1   6   2
 -0.3885780586188048E-15   1   1   6   3
  0.5665363232458365E-01   1   1   6   4
 -0.9992007221626409E-15   1   1   6   5
  0.2593551712038318E+00   1   1   6   6
 -0.1347300770298057E-14   2   1   1   1
  0.5040118117451908E+00   2   1   2   1
 -0.1030859425599218E-14   2   1   2   2
  0.1387778780781446E-16   2   1   3   1
 -0.5188888215986303E-01   2   1   3   2
 -0.5382521685304287E-15   2   1   3   3
 -0.1515516162662575E-01   2   1   4   1
 -0.6938893903907228E-16   2   1   4   2
  0.2249062542530324E-01   2   1   4   3
  0.8326672684688674E-16   2   1   4   4
  0.6591949208711867E-16   2   1   5   1
  0.2440741957584842E-01   2   1   5   2
 -0.1240327285323417E-15   2   1   5   3
 -0.2736396237496171E-03   2   1   5   4
 -0.4857225732735060E-16   2   1   5   5
  0.2605954827421908E-01   2   1   6   1
 -0.1942890293094024E-15   2   1   6   2
  0.1232639623676706E-01   2   1   6   3
 -0.3469446951953614E-15   2   1   6   4
 -0.6086372469133376E-02   2   1   6   5
 -0.1276756478318930E-14   2   1   6   6
  0.1180278964872724E+01   2   2   1   1
 -0.1082467449009528E-14   2   2   2   1
  0.1224407770582493E+01   2   2   2   2
 -0.7566277871635851E-01   2   2   3   1
  0.5342948306008566E-15   2   2   3   2
  0.3343693107812055E+00   2   2   3   3
 -0.5551115123125783E-15   2   2   4   1
 -0.2781196655563883E-01   2   2   4   2
 -0.3330669073875470E-15   2   2   4   3
  0.1805238023509750E+00   2   2   4   4
  0.4178418124362617E-01   2   2   5   1
 -0.4093947403305265E-15   2   2   5   2
 -0.8386517604394841E-01   2   2   5   3
 -0.2220446049250313E-15   2   2   5   4
  0.1946177598330995E+00   2   2   5   5
 -0.1249000902703301E-15   2   2   6   1
  0.4021074237679453E-01   2   2   6   2
 -0.5967448757360216E-15   2   2   6   3
  0.5700590431909802E-01   2   2   6   4
 -0.1110223024625157E-14   2   2   6   5
  0.2620786810603413E+00   2   2   6   6
 -0.7245766049505095E-01   3   1   1   1
  0.1734723475976807E-16   3   1   2   1
 -0.7566277871635853E-01   3   1   2   2
  0.8852644238959708E-02   3   1   3   1
 -0.5854691731421724E-17   3   1   3   2
 -0.2154471979636217E-02   3   1   3   3
  0.2428612866367530E-16   3   1   4   1
  0.2817273041424852E-02   3   1   4   2
 -0.6613633252161577E-17   3   1   4   3
 -0.9925416531468209E-04   3   1   4   4
 -0.4789853402167985E-02   3   1   5   1
  0.4011548038196366E-17   3   1   5   2
  0.1156927130862939E-02   3   1   5   3
 -0.6071532165918825E-17   3   1   5   4
 -0.6617327835941114E-03   3   1   5   5
  0.6938893903907228E-17   3   1   6   1
 -0.6306967023412399E-02   3   1   6   2
 -0.9085614205428527E-16   3   1   6   3
  0.3999842096251843E-03   3   1   6   4
  0.3556183125752455E-16   3   1   6   5
 -0.2382908024864648E-02   3   1   6   6
  0.5252439659220892E-15   3   2   1   1
 -0.5188888215986304E-01   3   2   2   1
  0.4850991570243268E-15   3   2   2   2
 -0.8673617379884035E-18   3   2   3   1
  0.7859128811008960E-02   3   2   3   2
  0.3449016517265840E-15   3   2   3   3
  0.2132447015686462E-02   3   2   4   1
  0.1908195823574488E-16   3   2   4   2
  0.1069536658013351E-02   3   2   4   3
 -0.1266348137463069E-15   3   2   4   4
 -0.4662069341687669E-17   3   2   5   1
 -0.3723921423911708E-02   3   2   5   2
 -0.7715453709949971E-16   3   2   5   3
  0.4489895469136232E-03   3   2   5   4
  0.1535501326782596E-15   3   2   5   5
 -0.5288026344550308E-02   3   2   6   1
 -0.1344410693882025E-16   3   2   6   2
  0.2876626975472291E-02   3   2   6   3
  0.9575673587391975E-15   3   2   6   4
 -0.1229297970230152E-02   3   2   6   5
 -0.5932754287840680E-15   3   2   6   6
  0.3345992837820336E+00   3   3   1   1
 -0.5342948306008566E-15   3   3   2   1
  0.3343693107812054E+00   3   3   2   2
 -0.2154471979636217E-02   3   3   3   1
  0.3434752482434078E-15   3   3   3   2
  0.2565542810292813E+00   3   3   3   3
 -0.1665334536937735E-15   3   3   4   1
 -0.1704490254620300E-02   3   3   4   2
 -0.8881784197001252E-15   3   3   4   3
  0.1695301073195385E+00   3   3   4   4
  0.1566617628281240E-02   3   3   5   1
 -0.3781697177629439E-15   3   3   5   2
 -0.4169259042522935E-01   3   3   5   3
 -0.3885780586188048E-15   3   3   5   4
  0.1684190381727258E+00   3   3   5   5
  0.1387778780781446E-16   3   3   6   1
  0.8292945700275056E-04   3   3   6   2
 -0.1158795281952507E-14   3   3   6   3
  0.4795990482781143E-01   3   3   6   4
 -0.3885780586188048E-15   3   3   6   5
  0.2050229094975791E+00   3   3   6   6
 -0.4147468768264304E-15   4   1   1   1
 -0.1515516162662563E-01   4   1   2   1
 -0.4186578926416995E-15   4   1   2   2
  0.3675445364725860E-16   4   1   3   1
  0.2132447015686436E-02   4   1   3   2
 -0.1629581276234131E-15   4   1   3   3
  0.5953637329923708E-03   4   1   4   1
  0.7112366251504909E-16   4   1   4   2
  0.1785762563422360E-03   4   1   4   3
  0.7055987738535663E-15   4   1   4   4
 -0.1610040226140974E-16   4   1   5   1
 -0.1018725427984657E-02   4   1   5   2
  0.8991762954872751E-16   4   1   5   3
  0.7000865174409271E-04   4   1   5   4
 -0.3194262888049637E-15   4   1   5   5
 -0.1316916488678236E-02   4   1   6   1
  0.1366094737331736E-16   4   1   6   2
  0.7088827840265350E-03   4   1   6   3
 -0.1349181183440962E-14   4   1   6   4
 -0.2750615026842828E-03   4   1   6   5
  0.4618701254788249E-14   4   1   6   6
 -0.2658344814091426E-01   4   2   1   1
 -0.1231653667943533E-15   4   2   2   1
 -0.2781196655563909E-01   4   2   2   2
  0.2817273041424860E-02   4   2   3   1
  0.2526191061891225E-16   4   2   3   2
 -0.1704490254620388E-02   4   2   3   3
  0.1257674520083185E-15   4   2   4   1
  0.9737795814703937E-03   4   2   4   2
 -0.2439454888092385E-15   4   2   4   3
  0.5126378781429922E-04   4   2   4   4
 -0.1520893737222170E-02   4   2   5   1
 -0.2640032290002203E-16   4   2   5   2
  0.9233819962673470E-03   4   2   5   3
  0.3317658647805644E-15   4   2   5   4
 -0.5619771906838992E-03   4   2   5   5
 -0.1539567084929416E-15   4   2   6   1
 -0.1894344888491425E-02   4   2   6   2
  0.2568474946618160E-15   4   2   6   3
  0.7483175220364749E-04   4   2   6   4
 -0.3183217578417441E-15   4   2   6   5
 -0.1010487815063476E-02   4   2   6   6
 -0.6010799903600691E-15   4   3   1   1
  0.2249062542530339E-01   4   3   2   1
 -0.5059700488446728E-15   4   3   2   2
 -0.2623769257414921E-16   4   3   3   1
  0.1069536658013315E-02   4   3   3   2
 -0.9864613466359362E-15   4   3   3   3
  0.1785762563423013E-03   4   3   4   1
 -0.4128641872824801E-15   4   3   4   2
  0.2355621733097307E-01   4   3   4   3
  0.1332267629550188E-14   4   3   4   4
  0.2168404344971009E-16   4   3   5   1
 -0.4990855798621118E-03   4   3   5   2
 -0.2584737979205443E-15   4   3   5   3
  0.1330907240191982E-01   4   3   5   4
 -0.9233065700886556E-15   4   3   5   5
 -0.2110092254288629E-03   4   3   6   1
  0.6162605148407607E-15   4   3   6   2
  0.2304471878902491E-01   4   3   6   3
 -0.3413935800722356E-14   4   3   6   4
 -0.1200915630663269E-01   4   3   6   5
  0.3164135620181696E-14   4   3   6   6
  0.1797939073067599E+00   4   4   1   1
 -0.5342948306008566E-15   4   4   2   1
  0.1805238023509755E+00   4   4   2   2
 -0.9925416531478791E-04   4   4   3   1
  0.1283695372222837E-15   4   4   3   2
  0.1695301073195379E+00   4   4   3   3
 -0.3191891195797325E-15   4   4   4   1
  0.5126378781293572E-04   4   4   4   2
  0.2220446049250313E-14   4   4   4   3
  0.1543776125078944E+00   4   4   4   4
  0.1788867701435883E-03   4   4   5   1
 -0.1101549407245273E-15   4   4   5   2
 -0.1032943522663171E-01   4   4   5   3
 -0.2026157019940911E-14   4   4   5   4
  0.1377551430828389E+00   4   4   5   5
  0.1297573160030652E-14   4   4   6   1
  0.8268648182985228E-04   4   4   6   2
 -0.5523359547510154E-14   4   4   6   3
  0.2218734584900339E-01   4   4   6   4
 -0.1748601263784622E-14   4   4   6   5
  0.1598939997509685E+00   4   4   6   6
  0.4155960781905605E-01   5   1   1   1
  0.3469446951953614E-16   5   1   2   1
  0.4178418124362617E-01   5   1   2   2
 -0.4789853402167988E-02   5   1   3   1
 -0.1409462824231156E-17   5   1   3   2
  0.1566617628281231E-02   5   1   3   3
 -0.3642919299551295E-16   5   1   4   1
 -0.1520893737222159E-02   5   1   4   2
  0.6288372600415926E-17   5   1   4   3
  0.1788867701444062E-03   5   1   4   4
  0.2692022349174901E-02   5   1   5   1
 -0.1084202172485504E-18   5   1   5   2
 -0.7791812653859978E-03   5   1   5   3
 -0.1734723475976807E-17   5   1   5   4
  0.5204084745922405E-03   5   1   5   5
  0.3252606517456513E-16   5   1   6   1
  0.3058291853217892E-02   5   1   6   2
  0.3409815832466911E-16   5   1   6   3
 -0.1010593628726214E-03   5   1   6   4
  0.6418476861114186E-16   5   1   6   5
  0.1513246251740083E-02   5   1   6   6
 -0.3480711431360912E-15   5   2   1   1
  0.2440741957584844E-01   5   2   2   1
 -0.3360755684161942E-15   5   2   2   2
 -0.9540979117872439E-17   5   2   3   1
 -0.3723921423911713E-02   5   2   3   2
 -0.3544544893057180E-15   5   2   3   3
 -0.1018725427984651E-02   5   2   4   1
 -0.1387778780781446E-16   5   2   4   2
 -0.4990855798622455E-03   5   2   4   3
  0.1517883041479706E-16   5   2   4   4
  0.4336808689942018E-18   5   2   5   1
  0.1799426757736272E-02   5   2   5   2
  0.1412173329662370E-16   5   2   5   3
 -0.5359334110217754E-04   5   2   5   4
 -0.2094136496155752E-15   5   2   5   5
  0.2368001083133259E-02   5   2   6   1
 -0.1517883041479706E-17   5   2   6   2
 -0.1413116094048956E-02   5   2   6   3
 -0.1371732588628660E-14   5   2   6   4
  0.5879369398270332E-03   5   2   6   5
  0.1878705524482882E-14   5   2   6   6
 -0.8431406782903712E-01   5   3   1   1
 -0.1318389841742373E-15   5   3   2   1
 -0.8386517604394839E-01   5   3   2   2
  0.1156927130862942E-02   5   3   3   1
 -0.8500145032286355E-16   5   3   3   2
 -0.4169259042522935E-01   5   3   3   3
  0.1734723475976807E-16   5   3   4   1
  0.9233819962674028E-03   5   3   4   2
 -0.3469446951953614E-15   5   3   4   3
 -0.1032943522663310E-01   5   3   4   4
 -0.7791812653859855E-03   5   3   5   1
  0.3556183125752455E-16   5   3   5   2
  0.1753820968652137E-01   5   3   5   3